# vtk DataFile Version 3.0
created by lujia!
ASCII
DATASET STRUCTURED_POINTS
DIMENSIONS 201 201 1
ORIGIN -3 -3 0
SPACING 1 1 1
POINT_DATA 40401
SCALARS image_data double
LOOKUP_TABLE default
3.08804 3.00155 2.91050 2.81578 2.71834 2.61917 2.51924 2.41956 2.32113 2.22492 2.13190 2.04300 1.95910 1.88105 1.80962 1.74553 1.68942 1.64184 1.60329 1.57413 1.55466 1.54507 1.54547 1.55585 1.57610 1.60602 1.64531 1.69358 1.75035 1.81505 1.88703 1.96558 2.04990 2.13917 2.23247 2.32890 2.42747 2.52720 2.62711 2.72618 2.82343 2.91789 3.00862 3.09470 3.17528 3.24956 3.31678 3.37628 3.42747 3.46983 3.50294 3.52647 3.54018 3.54394 3.53771 3.52155 3.49562 3.46018 3.41559 3.36229 3.30082 3.23178 3.15587 3.07385 2.98654 2.89480 2.79956 2.70176 2.60239 2.50244 2.40290 2.30477 2.20903 2.11664 2.02851 1.94554 1.86855 1.79831 1.73552 1.68081 1.63472 1.59772 1.57017 1.55235 1.54444 1.54652 1.55857 1.58046 1.61198 1.65281 1.70255 1.76069 1.82666 1.89980 1.97937 2.06459 2.15460 2.24850 2.34535 2.44418 2.54402 2.64385 2.74269 2.83954 2.93343 3.02344 3.10866 3.18823 3.26137 3.32734 3.38549 3.43522 3.47606 3.50757 3.52947 3.54151 3.54359 3.53568 3.51786 3.49032 3.45331 3.40723 3.35251 3.28972 3.21948 3.14249 3.05952 2.97140 2.87900 2.78327 2.68514 2.58560 2.48564 2.38627 2.28848 2.19323 2.10150 2.01418 1.93216 1.85625 1.78721 1.72574 1.67244 1.62785 1.59241 1.56649 1.55033 1.54409 1.54785 1.56156 1.58509 1.61820 1.66056 1.71175 1.77125 1.83848 1.91275 1.99333 2.07941 2.17014 2.26460 2.36185 2.46093 2.56083 2.66057 2.75914 2.85556 2.94887 3.03813 3.12246 3.20100 3.27299 3.33768 3.39445 3.44272 3.48202 3.51194 3.53218 3.54256 3.54296 3.53337 3.51391 3.48475 3.44619 3.39862 3.34250 3.27841 3.20699 3.12893 3.04504 2.95613 2.86311 2.76691 2.66847 2.56879 2.46886 2.36969 2.27226 2.17754 2.08648       2
3.00155 2.91507 2.82401 2.72929 2.63186 2.53268 2.43276 2.33308 2.23464 2.13843 2.04541 1.95651 1.87261 1.79456 1.72313 1.65904 1.60293 1.55536 1.51680 1.48764 1.46817 1.45859 1.45899 1.46936 1.48961 1.51953 1.55882 1.60709 1.66386 1.72856 1.80054 1.87909 1.96342 2.05268 2.14599 2.24241 2.34098 2.44072 2.54062 2.63969 2.73695 2.83141 2.92213 3.00822 3.08880 3.16307 3.23030 3.28980 3.34099 3.38335 3.41646 3.43998 3.45370 3.45745 3.45122 3.43506 3.40913 3.37370 3.32911 3.27581 3.21433 3.14530 3.06939 2.98737 2.90005 2.80831 2.71307 2.61528 2.51591 2.41595 2.31641 2.21828 2.12254 2.03015 1.94203 1.85906 1.78207 1.71183 1.64903 1.59432 1.54823 1.51123 1.48368 1.46587 1.45796 1.46004 1.47208 1.49397 1.52549 1.56632 1.61606 1.67420 1.74017 1.81331 1.89289 1.97811 2.06811 2.16201 2.25886 2.35770 2.45753 2.55736 2.65620 2.75305 2.84695 2.93696 3.02217 3.10175 3.17489 3.24086 3.29900 3.34874 3.38957 3.42109 3.44298 3.45503 3.45710 3.44920 3.43138 3.40383 3.36683 3.32074 3.26603 3.20324 3.13299 3.05600 2.97303 2.88491 2.79252 2.69678 2.59865 2.49911 2.39916 2.29979 2.20199 2.10675 2.01501 1.92769 1.84567 1.76976 1.70073 1.63925 1.58596 1.54136 1.50593 1.48000 1.46384 1.45761 1.46137 1.47508 1.49861 1.53172 1.57408 1.62526 1.68477 1.75199 1.82626 1.90685 1.99293 2.08365 2.17812 2.27537 2.37444 2.47434 2.57408 2.67265 2.76907 2.86238 2.95164 3.03597 3.11452 3.18650 3.25120 3.30797 3.35624 3.39553 3.42545 3.44570 3.45607 3.45647 3.44689 3.42742 3.39826 3.35970 3.31213 3.25602 3.19193 3.12050 3.04245 2.95855 2.86965 2.77663 2.68042 2.58199 2.48231 2.38238 2.28320 2.18577 2.09105       2 1.91351
2.91050 2.82401 2.73295 2.63823 2.54080 2.44163 2.34170 2.24202 2.14358 2.04738 1.95436 1.86545 1.78156 1.70350 1.63208 1.56799 1.51188 1.46430 1.42574 1.39658 1.37712 1.36753 1.36793 1.37831 1.39855 1.42847 1.46777 1.51604 1.57281 1.63751 1.70949 1.78803 1.87236 1.96162 2.05493 2.15135 2.24992 2.34966 2.44956 2.54864 2.64589 2.74035 2.83108 2.91716 2.99774 3.07201 3.13924 3.19874 3.24993 3.29229 3.32540 3.34893 3.36264 3.36640 3.36017 3.34400 3.31808 3.28264 3.23805 3.18475 3.12328 3.05424 2.97833 2.89631 2.80899 2.71726 2.62202 2.52422 2.42485 2.32489 2.22535 2.12722 2.03149 1.93909 1.85097 1.76800 1.69101 1.62077 1.55798 1.50326 1.45718 1.42017 1.39263 1.37481 1.36690 1.36898 1.38102 1.40292 1.43444 1.47527 1.52500 1.58315 1.64912 1.72226 1.80183 1.88705 1.97706 2.07095 2.16780 2.26664 2.36647 2.46631 2.56514 2.66199 2.75589 2.84590 2.93112 3.01069 3.08383 3.14980 3.20795 3.25768 3.29851 3.33003 3.35192 3.36397 3.36605 3.35814 3.34032 3.31277 3.27577 3.22968 3.17497 3.11218 3.04194 2.96495 2.88198 2.79385 2.70146 2.60572 2.50759 2.40805 2.30810 2.20873 2.11093 2.01569 1.92395 1.83664 1.75462 1.67871 1.60967 1.54820 1.49490 1.45031 1.41487 1.38894 1.37278 1.36655 1.37031 1.38402 1.40755 1.44066 1.48302 1.53421 1.59371 1.66093 1.73521 1.81579 1.90187 1.99260 2.08706 2.18431 2.28338 2.38329 2.48302 2.58159 2.67802 2.77132 2.86059 2.94491 3.02346 3.09544 3.16014 3.21691 3.26518 3.30447 3.33439 3.35464 3.36502 3.36542 3.35583 3.33636 3.30720 3.26865 3.22107 3.16496 3.10087 3.02944 2.95139 2.86749 2.77859 2.68557 2.58936 2.49093 2.39125 2.29132 2.19215 2.09471       2 1.90894 1.82245
2.81578 2.72929 2.63823 2.54352 2.44608 2.34691 2.24698 2.14730 2.04887 1.95266 1.85964 1.77073 1.68684 1.60879 1.53736 1.47327 1.41716 1.36958 1.33103 1.30187 1.28240 1.27281 1.27321 1.28359 1.30384 1.33376 1.37305 1.42132 1.47809 1.54279 1.61477 1.69332 1.77764 1.86691 1.96021 2.05664 2.15521 2.25494 2.35485 2.45392 2.55117 2.64563 2.73636 2.82244 2.90302 2.97730 3.04452 3.10402 3.15521 3.19757 3.23068 3.25421 3.26792 3.27168 3.26545 3.24929 3.22336 3.18792 3.14333 3.09003 3.02856 2.95952 2.88361 2.80159 2.71428 2.62254 2.52730 2.42950 2.33013 2.23017 2.13064 2.03251 1.93677 1.84438 1.75625 1.67328 1.59629 1.52605 1.46326 1.40855 1.36246 1.32546 1.29791 1.28009 1.27218 1.27426 1.28631 1.30820 1.33972 1.38055 1.43028 1.48843 1.55440 1.62754 1.70711 1.79233 1.88234 1.97624 2.07309 2.17192 2.27176 2.37159 2.47042 2.56728 2.66117 2.75118 2.83640 2.91597 2.98911 3.05508 3.11323 3.16296 3.20379 3.23531 3.25721 3.26925 3.27133 3.26342 3.24560 3.21806 3.18105 3.13496 3.08025 3.01746 2.94722 2.87023 2.78726 2.69914 2.60674 2.51100 2.41288 2.31334 2.21338 2.11401 2.01621 1.92097 1.82924 1.74192 1.65990 1.58399 1.51495 1.45348 1.40018 1.35559 1.32015 1.29423 1.27806 1.27183 1.27559 1.28930 1.31283 1.34594 1.38830 1.43949 1.49899 1.56622 1.64049 1.72107 1.80715 1.89788 1.99234 2.08959 2.18867 2.28857 2.38830 2.48688 2.58330 2.67661 2.76587 2.85020 2.92874 3.00072 3.06542 3.12219 3.17046 3.20976 3.23968 3.25992 3.27030 3.27070 3.26111 3.24165 3.21249 3.17393 3.12635 3.07024 3.00615 2.93472 2.85667 2.77278 2.68387 2.59085 2.49465 2.39621 2.29653 2.19660 2.09743       2 1.90528 1.81422 1.72773
2.71834 2.63186 2.54080 2.44608 2.34865 2.24947 2.14955 2.04987 1.95143 1.85522 1.76220 1.67330 1.58940 1.51135 1.43992 1.37583 1.31972 1.27215 1.23359 1.20443 1.18496 1.17538 1.17578 1.18615 1.20640 1.23632 1.27561 1.32389 1.38065 1.44535 1.51734 1.59588 1.68021 1.76947 1.86278 1.95920 2.05777 2.15751 2.25741 2.35648 2.45374 2.54820 2.63892 2.72501 2.80559 2.87986 2.94709 3.00659 3.05778 3.10014 3.13325 3.15677 3.17049 3.17425 3.16801 3.15185 3.12592 3.09049 3.04590 2.99260 2.93112 2.86209 2.78618 2.70416 2.61684 2.52511 2.42986 2.33207 2.23270 2.13274 2.03320 1.93507 1.83933 1.74694 1.65882 1.57585 1.49886 1.42862 1.36583 1.31111 1.26502 1.22802 1.20047 1.18266 1.17475 1.17683 1.18887 1.21076 1.24228 1.28311 1.33285 1.39099 1.45697 1.53010 1.60968 1.69490 1.78490 1.87880 1.97565 2.07449 2.17432 2.27416 2.37299 2.46984 2.56374 2.65375 2.73896 2.81854 2.89168 2.95765 3.01579 3.06553 3.10636 3.13788 3.15977 3.17182 3.17390 3.16599 3.14817 3.12062 3.08362 3.03753 2.98282 2.92003 2.84978 2.77279 2.68982 2.60170 2.50931 2.41357 2.31544 2.21590 2.11595 2.01658 1.91878 1.82354 1.73180 1.64449 1.56246 1.48656 1.41752 1.35604 1.30275 1.25816 1.22272 1.19679 1.18063 1.17440 1.17816 1.19187 1.21540 1.24851 1.29087 1.34205 1.40156 1.46878 1.54306 1.62364 1.70972 1.80045 1.89491 1.99216 2.09123 2.19114 2.29087 2.38944 2.48586 2.57917 2.66844 2.75276 2.83131 2.90329 2.96799 3.02476 3.07303 3.11232 3.14224 3.16249 3.17287 3.17326 3.16368 3.14421 3.11505 3.07649 3.02892 2.97281 2.90872 2.83729 2.75924 2.67534 2.58644 2.49342 2.39721 2.29878 2.19910 2.09917       2 1.90256 1.80784 1.71679 1.63030
2.61917 2.53268 2.44163 2.34691 2.24947 2.15030 2.05037 1.95069 1.85226 1.75605 1.66303 1.57413 1.49023 1.41218 1.34075 1.27666 1.22055 1.17297 1.13442 1.10526 1.08579 1.07620 1.07660 1.08698 1.10723 1.13715 1.17644 1.22471 1.28148 1.34618 1.41816 1.49671 1.58103 1.67030 1.76360 1.86003 1.95860 2.05833 2.15824 2.25731 2.35456 2.44902 2.53975 2.62583 2.70641 2.78069 2.84791 2.90741 2.95860 3.00096 3.03407 3.05760 3.07131 3.07507 3.06884 3.05268 3.02675 2.99131 2.94672 2.89342 2.83195 2.76291 2.68700 2.60498 2.51767 2.42593 2.33069 2.23289 2.13352 2.03357 1.93403 1.83590 1.74016 1.64777 1.55964 1.47667 1.39968 1.32944 1.26665 1.21194 1.16585 1.12885 1.10130 1.08348 1.07557 1.07765 1.08970 1.11159 1.14311 1.18394 1.23368 1.29182 1.35779 1.43093 1.51050 1.59572 1.68573 1.77963 1.87648 1.97531 2.07515 2.17498 2.27382 2.37067 2.46456 2.55457 2.63979 2.71936 2.79250 2.85847 2.91662 2.96635 3.00719 3.03870 3.06060 3.07264 3.07472 3.06681 3.04899 3.02145 2.98444 2.93836 2.88364 2.82085 2.75061 2.67362 2.59065 2.50253 2.41013 2.31440 2.21627 2.11673 2.01677 1.91740 1.81961 1.72436 1.63263 1.54531 1.46329 1.38738 1.31834 1.25687 1.20357 1.15898 1.12354 1.09762 1.08146 1.07522 1.07898 1.09269 1.11622 1.14933 1.19169 1.24288 1.30238 1.36961 1.44388 1.52446 1.61054 1.70127 1.79573 1.89298 1.99206 2.09196 2.19170 2.29027 2.38669 2.48000 2.56926 2.65359 2.73213 2.80412 2.86881 2.92558 2.97385 3.01315 3.04307 3.06331 3.07369 3.07409 3.06450 3.04504 3.01588 2.97732 2.92975 2.87363 2.80954 2.73812 2.66006 2.57617 2.48726 2.39424 2.29804 2.19960 2.09992       2 1.90082 1.80339 1.70867 1.61761 1.53113
2.51924 2.43276 2.34170 2.24698 2.14955 2.05037 1.95044 1.85077 1.75233 1.65612 1.56310 1.47420 1.39030 1.31225 1.24082 1.17673 1.12062 1.07305 1.03449 1.00533 0.98586 0.97628 0.97668 0.98705 1.00730 1.03722 1.07651 1.12478 1.18155 1.24625 1.31823 1.39678 1.48111 1.57037 1.66368 1.76010 1.85867 1.95841 2.05831 2.15738 2.25464 2.34910 2.43982 2.52591 2.60649 2.68076 2.74798 2.80749 2.85867 2.90103 2.93414 2.95767 2.97138 2.97514 2.96891 2.95275 2.92682 2.89139 2.84680 2.79350 2.73202 2.66299 2.58708 2.50506 2.41774 2.32600 2.23076 2.13297 2.03359 1.93364 1.83410 1.73597 1.64023 1.54784 1.45972 1.37675 1.29976 1.22951 1.16672 1.11201 1.06592 1.02892 1.00137 0.98355 0.97565 0.97772 0.98977 1.01166 1.04318 1.08401 1.13375 1.19189 1.25786 1.33100 1.41058 1.49579 1.58580 1.67970 1.77655 1.87539 1.97522 2.07505 2.17389 2.27074 2.36464 2.45465 2.53986 2.61944 2.69258 2.75855 2.81669 2.86643 2.90726 2.93878 2.96067 2.97271 2.97479 2.96688 2.94907 2.92152 2.88452 2.83843 2.78372 2.72092 2.65068 2.57369 2.49072 2.40260 2.31021 2.21447 2.11634 2.01680 1.91685 1.81747 1.71968 1.62444 1.53270 1.44538 1.36336 1.28745 1.21842 1.15694 1.10364 1.05905 1.02362 0.99769 0.98153 0.97530 0.97905 0.99277 1.01630 1.04940 1.09176 1.14295 1.20246 1.26968 1.34395 1.42453 1.51062 1.60134 1.69580 1.79306 1.89213 1.99203 2.09177 2.19034 2.28676 2.38007 2.46933 2.55366 2.63221 2.70419 2.76889 2.82566 2.87393 2.91322 2.94314 2.96339 2.97376 2.97416 2.96458 2.94511 2.91595 2.87739 2.82982 2.77371 2.70962 2.63819 2.56014 2.47624 2.38734 2.29432 2.19811 2.09967       2 1.90007 1.80089 1.70346 1.60874 1.51768 1.43120
2.41956 2.33308 2.24202 2.14730 2.04987 1.95069 1.85077 1.75109 1.65265 1.55644 1.46342 1.37452 1.29062 1.21257 1.14114 1.07705 1.02094 0.97337 0.93481 0.90565 0.88618 0.87660 0.87700 0.88737 0.90762 0.93754 0.97683 1.02510 1.08187 1.14657 1.21855 1.29710 1.38143 1.47069 1.56400 1.66042 1.75899 1.85873 1.95863 2.05770 2.15496 2.24942 2.34014 2.42623 2.50681 2.58108 2.64831 2.70781 2.75900 2.80136 2.83446 2.85799 2.87171 2.87546 2.86923 2.85307 2.82714 2.79171 2.74712 2.69382 2.63234 2.56331 2.48740 2.40538 2.31806 2.22632 2.13108 2.03329 1.93391 1.83396 1.73442 1.63629 1.54055 1.44816 1.36004 1.27707 1.20008 1.12984 1.06704 1.01233 0.96624 0.92924 0.90169 0.88388 0.87597 0.87805 0.89009 0.91198 0.94350 0.98433 1.03407 1.09221 1.15818 1.23132 1.31090 1.39612 1.48612 1.58002 1.67687 1.77571 1.87554 1.97537 2.07421 2.17106 2.26496 2.35497 2.44018 2.51976 2.59290 2.65887 2.71701 2.76675 2.80758 2.83910 2.86099 2.87304 2.87511 2.86721 2.84939 2.82184 2.78484 2.73875 2.68404 2.62125 2.55100 2.47401 2.39104 2.30292 2.21053 2.11479 2.01666 1.91712 1.81717 1.71779 1.62000 1.52476 1.43302 1.34570 1.26368 1.18777 1.11874 1.05726 1.00396 0.95937 0.92394 0.89801 0.88185 0.87562 0.87938 0.89309 0.91662 0.94973 0.99209 1.04327 1.10278 1.17000 1.24427 1.32486 1.41094 1.50166 1.59613 1.69338 1.79245 1.89235 1.99209 2.09066 2.18708 2.28039 2.36965 2.45398 2.53253 2.60451 2.66921 2.72598 2.77425 2.81354 2.84346 2.86371 2.87408 2.87448 2.86490 2.84543 2.81627 2.77771 2.73014 2.67403 2.60994 2.53851 2.46046 2.37656 2.28766 2.19464 2.09843       2 1.90032 1.80039 1.70121 1.60378 1.50906 1.41800 1.33152
2.32113 2.23464 2.14358 2.04887 1.95143 1.85226 1.75233 1.65265 1.55422 1.45801 1.36499 1.27608 1.19219 1.11414 1.04271 0.97862 0.92251 0.87493 0.83637 0.80722 0.78775 0.77816 0.77856 0.78894 0.80919 0.83911 0.87840 0.92667 0.98344 1.04814 1.12012 1.19867 1.28299 1.37226 1.46556 1.56199 1.66056 1.76029 1.86019 1.95927 2.05652 2.15098 2.24171 2.32779 2.40837 2.48265 2.54987 2.60937 2.66056 2.70292 2.73603 2.75956 2.77327 2.77703 2.77080 2.75464 2.72871 2.69327 2.64868 2.59538 2.53391 2.46487 2.38896 2.30694 2.21963 2.12789 2.03265 1.93485 1.83548 1.73552 1.63599 1.53786 1.44212 1.34973 1.26160 1.17863 1.10164 1.03140 0.96861 0.91390 0.86781 0.83080 0.80326 0.78544 0.77753 0.77961 0.79166 0.81355 0.84507 0.88590 0.93563 0.99378 1.05975 1.13289 1.21246 1.29768 1.38769 1.48158 1.57844 1.67727 1.77711 1.87694 1.97577 2.07263 2.16652 2.25653 2.34175 2.42132 2.49446 2.56043 2.61858 2.66831 2.70914 2.74066 2.76255 2.77460 2.77668 2.76877 2.75095 2.72341 2.68640 2.64031 2.58560 2.52281 2.45257 2.37558 2.29261 2.20448 2.11209 2.01635 1.91823 1.81869 1.71873 1.61936 1.52156 1.42632 1.33458 1.24727 1.16525 1.08934 1.02030 0.95883 0.90553 0.86094 0.82550 0.79957 0.78341 0.77718 0.78094 0.79465 0.81818 0.85129 0.89365 0.94484 1.00434 1.07156 1.14584 1.22642 1.31250 1.40323 1.49769 1.59494 1.69402 1.79392 1.89365 1.99223 2.08865 2.18196 2.27122 2.35554 2.43409 2.50607 2.57077 2.62754 2.67581 2.71511 2.74502 2.76527 2.77565 2.77605 2.76646 2.74699 2.71784 2.67928 2.63170 2.57559 2.51150 2.44007 2.36202 2.27813 2.18922 2.09620       2 1.90156 1.80188 1.70195 1.60278 1.50534 1.41063 1.31957 1.23308
2.22492 2.13843 2.04738 1.95266 1.85522 1.75605 1.65612 1.55644 1.45801 1.36180 1.26878 1.17988 1.09598 1.01793 0.94650 0.88241 0.82630 0.77872 0.74017 0.71101 0.69154 0.68196 0.68235 0.69273 0.71298 0.74290 0.78219 0.83046 0.88723 0.95193 1.02391 1.10246 1.18678 1.27605 1.36936 1.46578 1.56435 1.66408 1.76399 1.86306 1.96031 2.05477 2.14550 2.23158 2.31216 2.38644 2.45366 2.51316 2.56435 2.60671 2.63982 2.66335 2.67706 2.68082 2.67459 2.65843 2.63250 2.59706 2.55247 2.49917 2.43770 2.36866 2.29275 2.21073 2.12342 2.03168 1.93644 1.83864 1.73927 1.63932 1.53978 1.44165 1.34591 1.25352 1.16540 1.08242 1.00543 0.93519 0.87240 0.81769 0.77160 0.73460 0.70705 0.68923 0.68132 0.68340 0.69545 0.71734 0.74886 0.78969 0.83943 0.89757 0.96354 1.03668 1.11625 1.20147 1.29148 1.38538 1.48223 1.58106 1.68090 1.78073 1.87957 1.97642 2.07031 2.16032 2.24554 2.32511 2.39825 2.46422 2.52237 2.57210 2.61294 2.64445 2.66635 2.67839 2.68047 2.67256 2.65474 2.62720 2.59019 2.54411 2.48939 2.42660 2.35636 2.27937 2.19640 2.10828 2.01588 1.92015 1.82202 1.72248 1.62252 1.52315 1.42536 1.33011 1.23838 1.15106 1.06904 0.99313 0.92409 0.86262 0.80932 0.76473 0.72929 0.70337 0.68721 0.68097 0.68473 0.69844 0.72197 0.75508 0.79744 0.84863 0.90813 0.97536 1.04963 1.13021 1.21629 1.30702 1.40148 1.49873 1.59781 1.69771 1.79745 1.89602 1.99244 2.08575 2.17501 2.25934 2.33788 2.40987 2.47456 2.53133 2.57960 2.61890 2.64882 2.66906 2.67944 2.67984 2.67025 2.65079 2.62163 2.58307 2.53550 2.47938 2.41529 2.34387 2.26581 2.18192 2.09302       2 1.90379 1.80535 1.70567 1.60575 1.50657 1.40914 1.31442 1.22336 1.13688
2.13190 2.04541 1.95436 1.85964 1.76220 1.66303 1.56310 1.46342 1.36499 1.26878 1.17576 1.08686 1.00296 0.92491 0.85348 0.78939 0.73328 0.68570 0.64715 0.61799 0.59852 0.58894 0.58933 0.59971 0.61996 0.64988 0.68917 0.73744 0.79421 0.85891 0.93089 1.00944 1.09376 1.18303 1.27634 1.37276 1.47133 1.57106 1.67097 1.77004 1.86729 1.96175 2.05248 2.13856 2.21914 2.29342 2.36064 2.42014 2.47133 2.51369 2.54680 2.57033 2.58404 2.58780 2.58157 2.56541 2.53948 2.50404 2.45945 2.40615 2.34468 2.27564 2.19973 2.11771 2.03040 1.93866 1.84342 1.74562 1.64625 1.54630 1.44676 1.34863 1.25289 1.16050 1.07238 0.98940 0.91241 0.84217 0.77938 0.72467 0.67858 0.64158 0.61403 0.59621 0.58830 0.59038 0.60243 0.62432 0.65584 0.69667 0.74641 0.80455 0.87052 0.94366 1.02323 1.10845 1.19846 1.29236 1.38921 1.48804 1.58788 1.68771 1.78655 1.88340 1.97729 2.06730 2.15252 2.23209 2.30523 2.37120 2.42935 2.47908 2.51992 2.55143 2.57333 2.58537 2.58745 2.57954 2.56172 2.53418 2.49717 2.45109 2.39637 2.33358 2.26334 2.18635 2.10338 2.01526 1.92286 1.82713 1.72900 1.62946 1.52950 1.43013 1.33234 1.23709 1.14536 1.05804 0.97602 0.90011 0.83107 0.76960 0.71630 0.67171 0.63627 0.61035 0.59419 0.58795 0.59171 0.60542 0.62895 0.66206 0.70442 0.75561 0.81511 0.88234 0.95661 1.03719 1.12327 1.21400 1.30846 1.40571 1.50479 1.60469 1.70443 1.80300 1.89942 1.99273 2.08199 2.16632 2.24486 2.31685 2.38154 2.43831 2.48658 2.52588 2.55580 2.57604 2.58642 2.58682 2.57723 2.55777 2.52861 2.49005 2.44248 2.38636 2.32227 2.25085 2.17279 2.08890       2 1.90697 1.81077 1.71233 1.61265 1.51273 1.41355 1.31612 1.22140 1.13034 1.04386
2.04300 1.95651 1.86545 1.77073 1.67330 1.57413 1.47420 1.37452 1.27608 1.17988 1.08686 0.99795 0.91406 0.83600 0.76458 0.70049 0.64438 0.59680 0.55824 0.52908 0.50962 0.50003 0.50043 0.51081 0.53105 0.56097 0.60027 0.64854 0.70531 0.77001 0.84199 0.92053 1.00486 1.09412 1.18743 1.28385 1.38242 1.48216 1.58206 1.68114 1.77839 1.87285 1.96358 2.04966 2.13024 2.20451 2.27174 2.33124 2.38243 2.42479 2.45790 2.48143 2.49514 2.49890 2.49267 2.47650 2.45058 2.41514 2.37055 2.31725 2.25578 2.18674 2.11083 2.02881 1.94149 1.84976 1.75452 1.65672 1.55735 1.45739 1.35785 1.25972 1.16399 1.07159 0.98347 0.90050 0.82351 0.75327 0.69048 0.63576 0.58968 0.55267 0.52513 0.50731 0.49940 0.50148 0.51352 0.53542 0.56694 0.60777 0.65750 0.71565 0.78162 0.85476 0.93433 1.01955 1.10956 1.20345 1.30030 1.39914 1.49897 1.59881 1.69764 1.79449 1.88839 1.97840 2.06362 2.14319 2.21633 2.28230 2.34045 2.39018 2.43101 2.46253 2.48442 2.49647 2.49855 2.49064 2.47282 2.44527 2.40827 2.36218 2.30747 2.24468 2.17444 2.09745 2.01448 1.92635 1.83396 1.73822 1.64009 1.54055 1.44060 1.34123 1.24343 1.14819 1.05645 0.96914 0.88712 0.81121 0.74217 0.68070 0.62740 0.58281 0.54737 0.52144 0.50528 0.49905 0.50281 0.51652 0.54005 0.57316 0.61552 0.66671 0.72621 0.79343 0.86771 0.94829 1.03437 1.12510 1.21956 1.31681 1.41588 1.51579 1.61552 1.71409 1.81052 1.90382 1.99309 2.07741 2.15596 2.22794 2.29264 2.34941 2.39768 2.43697 2.46689 2.48714 2.49752 2.49792 2.48833 2.46886 2.43970 2.40115 2.35357 2.29746 2.23337 2.16194 2.08389       2 1.91109 1.81807 1.72186 1.62343 1.52375 1.42382 1.32465 1.22721 1.13250 1.04144 0.95495
1.95910 1.87261 1.78156 1.68684 1.58940 1.49023 1.39030 1.29062 1.19219 1.09598 1.00296 0.91406 0.83016 0.75211 0.68068 0.61659 0.56048 0.51291 0.47435 0.44519 0.42572 0.41614 0.41653 0.42691 0.44716 0.47708 0.51637 0.56464 0.62141 0.68611 0.75809 0.83664 0.92096 1.01023 1.10354 1.19996 1.29853 1.39826 1.49817 1.59724 1.69449 1.78895 1.87968 1.96576 2.04634 2.12062 2.18784 2.24735 2.29853 2.34089 2.37400 2.39753 2.41124 2.41500 2.40877 2.39261 2.36668 2.33124 2.28665 2.23335 2.17188 2.10284 2.02694 1.94491 1.85760 1.76586 1.67062 1.57282 1.47345 1.37350 1.27396 1.17583 1.08009 0.98770 0.89958 0.81661 0.73961 0.66937 0.60658 0.55187 0.50578 0.46878 0.44123 0.42341 0.41550 0.41758 0.42963 0.45152 0.48304 0.52387 0.57361 0.63175 0.69772 0.77086 0.85044 0.93565 1.02566 1.11956 1.21641 1.31524 1.41508 1.51491 1.61375 1.71060 1.80450 1.89450 1.97972 2.05930 2.13243 2.19840 2.25655 2.30629 2.34712 2.37864 2.40053 2.41257 2.41465 2.40674 2.38893 2.36138 2.32438 2.27829 2.22357 2.16078 2.09054 2.01355 1.93058 1.84246 1.75007 1.65433 1.55620 1.45666 1.35670 1.25733 1.15954 1.06429 0.97256 0.88524 0.80322 0.72731 0.65828 0.59680 0.54350 0.49891 0.46348 0.43755 0.42139 0.41515 0.41891 0.43263 0.45615 0.48926 0.53162 0.58281 0.64231 0.70954 0.78381 0.86439 0.95048 1.04120 1.13566 1.23292 1.33199 1.43189 1.53163 1.63020 1.72662 1.81993 1.90919 1.99352 2.07206 2.14405 2.20875 2.26551 2.31379 2.35308 2.38300 2.40325 2.41362 2.41402 2.40444 2.38497 2.35581 2.31725 2.26968 2.21356 2.14947 2.07805       2 1.91610 1.82720 1.73418 1.63797 1.53953 1.43985 1.33993 1.24075 1.14332 1.04860 0.95754 0.87106
1.88105 1.79456 1.70350 1.60879 1.51135 1.41218 1.31225 1.21257 1.11414 1.01793 0.92491 0.83600 0.75211 0.67406 0.60263 0.53854 0.48243 0.43485 0.39630 0.36714 0.34767 0.33808 0.33848 0.34886 0.36911 0.39903 0.43832 0.48659 0.54336 0.60806 0.68004 0.75859 0.84291 0.93218 1.02548 1.12191 1.22048 1.32021 1.42012 1.51919 1.61644 1.71090 1.80163 1.88771 1.96829 2.04257 2.10979 2.16929 2.22048 2.26284 2.29595 2.31948 2.33319 2.33695 2.33072 2.31456 2.28863 2.25319 2.20860 2.15530 2.09383 2.02479 1.94888 1.86686 1.77955 1.68781 1.59257 1.49477 1.39540 1.29545 1.19591 1.09778 1.00204 0.90965 0.82152 0.73855 0.66156 0.59132 0.52853 0.47382 0.42773 0.39073 0.36318 0.34536 0.33745 0.33953 0.35158 0.37347 0.40499 0.44582 0.49555 0.55370 0.61967 0.69281 0.77238 0.85760 0.94761 1.04151 1.13836 1.23719 1.33703 1.43686 1.53570 1.63255 1.72644 1.81645 1.90167 1.98124 2.05438 2.12035 2.17850 2.22823 2.26906 2.30058 2.32248 2.33452 2.33660 2.32869 2.31087 2.28333 2.24632 2.20024 2.14552 2.08273 2.01249 1.93550 1.85253 1.76441 1.67201 1.57628 1.47815 1.37861 1.27865 1.17928 1.08148 0.98624 0.89451 0.80719 0.72517 0.64926 0.58022 0.51875 0.46545 0.42086 0.38542 0.35950 0.34333 0.33710 0.34086 0.35457 0.37810 0.41121 0.45357 0.50476 0.56426 0.63149 0.70576 0.78634 0.87242 0.96315 1.05761 1.15486 1.25394 1.35384 1.45357 1.55215 1.64857 1.74188 1.83114 1.91547 1.99401 2.06599 2.13069 2.18746 2.23573 2.27503 2.30495 2.32519 2.33557 2.33597 2.32638 2.30692 2.27776 2.23920 2.19162 2.13551 2.07142       2 1.92194 1.83805 1.74914 1.65612 1.55992 1.46148 1.36180 1.26187 1.16270 1.06527 0.97055 0.87949 0.79300
1.80962 1.72313 1.63208 1.53736 1.43992 1.34075 1.24082 1.14114 1.04271 0.94650 0.85348 0.76458 0.68068 0.60263 0.53120 0.46711 0.41100 0.36343 0.32487 0.29571 0.27624 0.26666 0.26705 0.27743 0.29768 0.32760 0.36689 0.41516 0.47193 0.53663 0.60861 0.68716 0.77148 0.86075 0.95406 1.05048 1.14905 1.24878 1.34869 1.44776 1.54501 1.63947 1.73020 1.81628 1.89686 1.97114 2.03836 2.09787 2.14905 2.19141 2.22452 2.24805 2.26176 2.26552 2.25929 2.24313 2.21720 2.18176 2.13717 2.08388 2.02240 1.95336 1.87746 1.79543 1.70812 1.61638 1.52114 1.42334 1.32397 1.22402 1.12448 1.02635 0.93061 0.83822 0.75010 0.66713 0.59013 0.51989 0.45710 0.40239 0.35630 0.31930 0.29175 0.27393 0.26602 0.26810 0.28015 0.30204 0.33356 0.37439 0.42413 0.48227 0.54824 0.62138 0.70096 0.78617 0.87618 0.97008 1.06693 1.16576 1.26560 1.36543 1.46427 1.56112 1.65502 1.74502 1.83024 1.90982 1.98295 2.04892 2.10707 2.15681 2.19764 2.22916 2.25105 2.26309 2.26517 2.25726 2.23945 2.21190 2.17490 2.12881 2.07409 2.01130 1.94106 1.86407 1.78110 1.69298 1.60059 1.50485 1.40672 1.30718 1.20722 1.10785 1.01006 0.91481 0.82308 0.73576 0.65374 0.57783 0.50880 0.44732 0.39402 0.34943 0.31400 0.28807 0.27191 0.26567 0.26943 0.28315 0.30667 0.33978 0.38214 0.43333 0.49283 0.56006 0.63433 0.71491 0.80100 0.89172 0.98618 1.08344 1.18251 1.28241 1.38215 1.48072 1.57714 1.67045 1.75971 1.84404 1.92258 1.99457 2.05927 2.11603 2.16431 2.20360 2.23352 2.25377 2.26414 2.26454 2.25496 2.23549 2.20633 2.16777 2.12020 2.06409       2 1.92857 1.85052 1.76662 1.67772 1.58470 1.48849 1.39005 1.29037 1.19045 1.09127 0.99384 0.89912 0.80806 0.72158
1.74553 1.65904 1.56799 1.47327 1.37583 1.27666 1.17673 1.07705 0.97862 0.88241 0.78939 0.70049 0.61659 0.53854 0.46711 0.40302 0.34691 0.29934 0.26078 0.23162 0.21215 0.20257 0.20296 0.21334 0.23359 0.26351 0.30280 0.35107 0.40784 0.47254 0.54452 0.62307 0.70739 0.79666 0.88997 0.98639 1.08496 1.18469 1.28460 1.38367 1.48092 1.57538 1.66611 1.75219 1.83277 1.90705 1.97427 2.03378 2.08496 2.12732 2.16043 2.18396 2.19767 2.20143 2.19520 2.17904 2.15311 2.11767 2.07308 2.01978 1.95831 1.88927 1.81337 1.73134 1.64403 1.55229 1.45705 1.35925 1.25988 1.15993 1.06039 0.96226 0.86652 0.77413 0.68601 0.60304 0.52604 0.45580 0.39301 0.33830 0.29221 0.25521 0.22766 0.20984 0.20193 0.20401 0.21606 0.23795 0.26947 0.31030 0.36004 0.41818 0.48415 0.55729 0.63687 0.72208 0.81209 0.90599 1.00284 1.10167 1.20151 1.30134 1.40018 1.49703 1.59093 1.68093 1.76615 1.84573 1.91886 1.98483 2.04298 2.09272 2.13355 2.16507 2.18696 2.19900 2.20108 2.19317 2.17536 2.14781 2.11081 2.06472 2.01000 1.94721 1.87697 1.79998 1.71701 1.62889 1.53650 1.44076 1.34263 1.24309 1.14313 1.04376 0.94597 0.85072 0.75899 0.67167 0.58965 0.51374 0.44471 0.38323 0.32993 0.28534 0.24991 0.22398 0.20782 0.20158 0.20534 0.21906 0.24258 0.27569 0.31805 0.36924 0.42874 0.49597 0.57024 0.65082 0.73691 0.82763 0.92209 1.01935 1.11842 1.21832 1.31806 1.41663 1.51305 1.60636 1.69562 1.77995 1.85849 1.93048 1.99518 2.05194 2.10022 2.13951 2.16943 2.18968 2.20005 2.20045 2.19087 2.17140 2.14224 2.10368 2.05611       2 1.93590 1.86448 1.78643 1.70253 1.61363 1.52061 1.42440 1.32596 1.22628 1.12636 1.02718 0.92975 0.83503 0.74397 0.65749
1.68942 1.60293 1.51188 1.41716 1.31972 1.22055 1.12062 1.02094 0.92251 0.82630 0.73328 0.64438 0.56048 0.48243 0.41100 0.34691 0.29080 0.24322 0.20467 0.17551 0.15604 0.14645 0.14685 0.15723 0.17748 0.20740 0.24669 0.29496 0.35173 0.41643 0.48841 0.56696 0.65128 0.74055 0.83385 0.93028 1.02885 1.12858 1.22849 1.32756 1.42481 1.51927 1.61000 1.69608 1.77666 1.85094 1.91816 1.97766 2.02885 2.07121 2.10432 2.12785 2.14156 2.14532 2.13909 2.12293 2.09700 2.06156 2.01697 1.96367 1.90220 1.83316 1.75725 1.67523 1.58792 1.49618 1.40094 1.30314 1.20377 1.10382 1.00428 0.90615 0.81041 0.71802 0.62989 0.54692 0.46993 0.39969 0.33690 0.28219 0.23610 0.19910 0.17155 0.15373 0.14582 0.14790 0.15995 0.18184 0.21336 0.25419 0.30393 0.36207 0.42804 0.50118 0.58075 0.66597 0.75598 0.84988 0.94673 1.04556 1.14540 1.24523 1.34407 1.44092 1.53481 1.62482 1.71004 1.78961 1.86275 1.92872 1.98687 2.03660 2.07744 2.10895 2.13085 2.14289 2.14497 2.13706 2.11924 2.09170 2.05469 2.00861 1.95389 1.89110 1.82086 1.74387 1.66090 1.57278 1.48038 1.38465 1.28652 1.18698 1.08702 0.98765 0.88985 0.79461 0.70288 0.61556 0.53354 0.45763 0.38859 0.32712 0.27382 0.22923 0.19379 0.16787 0.15171 0.14547 0.14923 0.16294 0.18647 0.21958 0.26194 0.31313 0.37263 0.43986 0.51413 0.59471 0.68079 0.77152 0.86598 0.96323 1.06231 1.16221 1.26195 1.36052 1.45694 1.55025 1.63951 1.72384 1.80238 1.87437 1.93906 1.99583 2.04410 2.08340 2.11332 2.13356 2.14394 2.14434 2.13475 2.11529 2.08613 2.04757       2 1.94388 1.87979 1.80837 1.73031 1.64642 1.55751 1.46449 1.36829 1.26985 1.17017 1.07024 0.97107 0.87364 0.77892 0.68786 0.60137
1.64184 1.55536 1.46430 1.36958 1.27215 1.17297 1.07305 0.97337 0.87493 0.77872 0.68570 0.59680 0.51291 0.43485 0.36343 0.29934 0.24322 0.19565 0.15709 0.12793 0.10846 0.09888 0.09928 0.10965 0.12990 0.15982 0.19912 0.24739 0.30416 0.36885 0.44084 0.51938 0.60371 0.69297 0.78628 0.88270 0.98127 1.08101 1.18091 1.27999 1.37724 1.47170 1.56243 1.64851 1.72909 1.80336 1.87059 1.93009 1.98128 2.02364 2.05675 2.08028 2.09399 2.09775 2.09151 2.07535 2.04943 2.01399 1.96940 1.91610 1.85463 1.78559 1.70968 1.62766 1.54034 1.44861 1.35336 1.25557 1.15620 1.05624 0.95670 0.85857 0.76284 0.67044 0.58232 0.49935 0.42236 0.35212 0.28933 0.23461 0.18853 0.15152 0.12398 0.10616 0.09825 0.10033 0.11237 0.13426 0.16578 0.20662 0.25635 0.31450 0.38047 0.45361 0.53318 0.61840 0.70840 0.80230 0.89915 0.99799 1.09782 1.19766 1.29649 1.39334 1.48724 1.57725 1.66247 1.74204 1.81518 1.88115 1.93929 1.98903 2.02986 2.06138 2.08327 2.09532 2.09740 2.08949 2.07167 2.04412 2.00712 1.96103 1.90632 1.84353 1.77329 1.69630 1.61332 1.52520 1.43281 1.33707 1.23894 1.13940 1.03945 0.94008 0.84228 0.74704 0.65530 0.56799 0.48597 0.41006 0.34102 0.27955 0.22625 0.18166 0.14622 0.12029 0.10413 0.09790 0.10166 0.11537 0.13890 0.17201 0.21437 0.26556 0.32506 0.39228 0.46656 0.54714 0.63322 0.72395 0.81841 0.91566 1.01473 1.11464 1.21437 1.31294 1.40936 1.50267 1.59194 1.67626 1.75481 1.82679 1.89149 1.94826 1.99653 2.03582 2.06574 2.08599 2.09637 2.09676 2.08718 2.06771 2.03855       2 1.95242 1.89631 1.83222 1.76079 1.68274 1.59884 1.50994 1.41692 1.32071 1.22228 1.12260 1.02267 0.92350 0.82606 0.73134 0.64029 0.55380